Program Version,EnergyPlus, Version 9.3.0-baff08990c, YMD=2021.07.06 11:53
1,5,Environment Title[],Latitude[deg],Longitude[deg],Time Zone[],Elevation[m]
2,8,Day of Simulation[],Month[],Day of Month[],DST Indicator[1=yes 0=no],Hour[],StartMinute[],EndMinute[],DayType
3,5,Cumulative Day of Simulation[],Month[],Day of Month[],DST Indicator[1=yes 0=no],DayType  ! When Daily Meters Requested
4,2,Cumulative Days of Simulation[],Month[]  ! When Monthly Meters Requested
5,1,Cumulative Days of Simulation[] ! When Run Period Meters Requested
6,1,Calendar Year of Simulation[] ! When Annual Meters Requested
196,1,Appl_1:InteriorEquipment:Electricity [J] !Hourly
2128,1,COOLING HVAC FAN PUMP_1 [J] !Hourly
2140,1,COOLING:ELECTRICITY_1 [J] !Hourly
2164,1,ELECTRICITY:UNIT_1 [J] !Hourly
2176,1,GAS:UNIT_1 [J] !Hourly
2188,1,HEATING HVAC FAN PUMP_1 [J] !Hourly
2200,1,HEATING:ELECTRICITY_1 [J] !Hourly
2212,1,HEATING:GAS_1 [J] !Hourly
2224,1,HEATING:PROPANE_1 [m3] !Hourly
2236,1,HPWHFAN:ELECTRICITY_1 [J] !Hourly
2248,1,METERCOOLINGDUCTLOSSESLATENT_1 [J] !Hourly
2260,1,METERCOOLINGDUCTLOSSESSENS_1 [J] !Hourly
2272,1,METERDELIVEREDCOOLINGLATENTDEHUM_1 [J] !Hourly
2284,1,METERDELIVEREDCOOLINGLATENTHVAC_1 [J] !Hourly
2296,1,METERDELIVEREDCOOLINGSENS_1 [J] !Hourly
2308,1,METERDELIVEREDHEATINGSUPP_1 [J] !Hourly
2320,1,METERDELIVEREDHEATINGTOZONE_1 [J] !Hourly
2332,1,METERDHWDELIVERED_1 [J] !Hourly
2344,1,METERHEATINGDUCTLOSSES_1 [J] !Hourly
2356,1,METERPIPELOSSESUNIT_1 [J] !Hourly
183,1,Misc_1:InteriorEquipment:Electricity [J] !Hourly
276,1,Misc_1:InteriorEquipment:Gas [J] !Hourly
2368,1,PROPANE:UNIT_1 [m3] !Hourly
2380,1,PV:ELECTRICITY_1 [J] !Hourly
2392,1,SDHWPUMP:ELECTRICITY_1 [J] !Hourly
2404,1,TOTALLIGHTS:ELECTRICITY_1 [J] !Hourly
168,1,VentFans_1:InteriorEquipment:Electricity [J] !Hourly
2428,1,WATERHEATING:GAS_1 [J] !Hourly
2440,1,WATERHEATING:PROPANE_1 [m3] !Hourly
End of Data Dictionary
1,AUSTIN MUELLER MUNICIPAL AP U TX 2340 SQFT,  30.17, -97.41,  -7.00, 115.00
2,1, 1, 1, 0, 1, 0.00,60.00,Tuesday
168,32886.0
183,1069659.5597988063
196,374401.0118661388
276,0.0
2128,0.0
2140,0.0
2164,1785871.0446673304
2176,0.0
2188,0.0
2200,0.0
2212,0.0
2224,0.0
2236,0.0
2248,0.0
2260,0.0
2272,0.0
2284,0.0
2296,0.0
2308,0.0
2320,0.0
2332,0.0
2344,0.0
2356,32797.9749756484
2368,0.0
2380,0.0
2392,0.0
2404,308924.47300238566
2428,0.0
2440,0.0
2,1, 1, 1, 0, 2, 0.00,60.00,Tuesday
168,32886.0
183,1008536.1563817315
196,322803.86038115128
276,0.0
2128,0.0
2140,0.0
2164,1582834.4451351697
2176,1755428.0923118438
2188,33253.74457085483
2200,0.0
2212,1755428.0923118438
2224,0.0
2236,0.0
2248,785.1870981870811
2260,0.0
2272,0.0
2284,-785.1870981870811
2296,0.0
2308,0.0
2320,1443871.6914140823
2332,102031.80957909764
2344,136013.59166657728
2356,16425.310100164195
2368,0.0
2380,0.0
2392,0.0
2404,185354.6838014321
2428,0.0
2440,0.0
2,1, 1, 1, 0, 3, 0.00,60.00,Tuesday
168,32886.0
183,977974.4546731942
196,275424.2100462132
276,0.0
2128,0.0
2140,0.0
2164,1532556.5763397832
2176,6312832.58001916
2188,122702.122419421
2200,0.0
2212,4757034.341244043
2224,0.0
2236,0.0
2248,571.8902979572168
2260,0.0
2272,0.0
2284,-571.8902979572168
2296,0.0
2308,0.0
2320,3771792.3905529717
2332,174323.27738786833
2344,509538.51656666738
2356,4106.32752504106
2368,0.0
2380,0.0
2392,0.0
2404,123569.78920095472
2428,1555798.2387751174
2440,0.0
2,1, 1, 1, 0, 4, 0.00,60.00,Tuesday
168,32886.0
183,947412.7529646568
196,246941.4284444812
276,0.0
2128,0.0
2140,0.0
2164,1515150.6454032108
2176,7897373.209015086
2188,164340.674793118
2200,0.0
2212,6122437.795126103
2224,0.0
2236,0.0
2248,0.0
2260,0.0
2272,0.0
2284,0.0
2296,0.0
2308,0.0
2320,4819962.843715403
2332,1077962.862873613
2344,690231.1718980905
2356,4106.32752504106
2368,0.0
2380,0.0
2392,0.0
2404,123569.78920095472
2428,1774935.4138889823
2440,0.0
2,1, 1, 1, 0, 5, 0.00,60.00,Tuesday
168,32886.0
183,977974.4546731942
196,283584.255342467
276,0.0
2128,0.0
2140,0.0
2164,1627441.8689974244
2176,7199883.424647893
2188,195615.36079920142
2200,0.0
2212,7199883.424647893
2224,0.0
2236,0.0
2248,0.0
2260,0.0
2272,0.0
2284,0.0
2296,0.0
2308,0.0
2320,5652872.876330147
2332,0.0
2344,827022.2058529575
2356,16425.310100164195
2368,0.0
2380,0.0
2392,0.0
2404,137381.7981825619
2428,0.0
2440,0.0
2,1, 1, 1, 0, 6, 0.00,60.00,Tuesday
168,32886.0
183,1008536.1563817315
196,331894.4502033306
276,0.0
2128,0.0
2140,0.0
2164,1964046.1996343036
2176,9352349.815091
2188,213770.05579145414
2200,0.0
2212,7796543.0060194269
2224,0.0
2236,0.0
2248,0.0
2260,0.0
2272,0.0
2284,0.0
2296,0.0
2308,0.0
2320,6109625.9537138049
2332,0.0
2344,907262.7517036796
2356,114819.23502710936
2368,0.0
2380,0.0
2392,0.0
2404,376959.53725778716
2428,1555806.8090715747
2440,0.0
2,1, 1, 1, 0, 7, 0.00,60.00,Tuesday
168,122886.0
183,1130782.9632158809
196,546388.5104781898
276,0.0
2128,0.0
2140,0.0
2164,2968324.3468687508
2176,15021530.490876819
2188,283269.93821771597
2200,0.0
2212,10434527.54215255
2224,0.0
2236,0.0
2248,0.0
2260,0.0
2272,0.0
2284,0.0
2296,0.0
2308,0.0
2320,8189575.742182877
2332,3475013.642638094
2344,1201499.0457544183
2356,393628.34493246077
2368,0.0
2380,0.0
2392,0.0
2404,884996.9349569638
2428,4587002.948724268
2440,0.0
2,1, 1, 1, 0, 8, 0.00,60.00,Tuesday
168,50886.0
183,1283591.4717585676
196,849122.5491360219
276,0.0
2128,0.0
2140,0.0
2164,3433697.1234549779
2176,4811633.401291851
2188,130156.29562323545
2200,0.0
2212,3255996.119996732
2224,0.0
2236,0.0
2248,0.0
2260,0.0
2272,0.0
2284,0.0
2296,0.0
2308,0.0
2320,2425273.327917402
2332,115300.06811216308
2344,505514.6518813526
2356,418213.6648580268
2368,0.0
2380,0.0
2392,0.0
2404,1119940.8069371533
2428,1555637.2812951185
2440,0.0
2,1, 1, 1, 0, 9, 0.00,60.00,Tuesday
168,32886.0
183,1314153.1734671049
196,1064601.7448981524
276,0.0
2128,0.0
2140,0.0
2164,3633599.796812549
2176,2647348.2196743905
2188,31776.347783899124
2200,0.0
2212,1063003.2143680659
2224,0.0
2236,0.0
2248,0.0
2260,0.0
2272,0.0
2284,0.0
2296,0.0
2308,0.0
2320,811864.7044160569
2332,801610.7856057582
2344,144581.3176877992
2356,401788.3547578626
2368,0.0
2380,0.0
2392,0.0
2404,1190182.5306633923
2428,1584345.0053063243
2440,0.0
2,1, 1, 1, 0,10, 0.00,60.00,Tuesday
168,32886.0
183,1314153.1734671049
196,1469549.8287750323
276,0.0
2128,0.0
2140,0.0
2164,4040289.2460140616
2176,1772743.9450100102
2188,275.8315497929347
2200,0.0
2212,0.0
2224,0.0
2236,0.0
2248,0.0
2260,0.0
2272,0.0
2284,0.0
2296,0.0
2308,0.0
2320,-2789.1692595974088
2332,1236898.107548246
2344,2789.1692595974088
2356,352617.71490672996
2368,0.0
2380,0.0
2392,0.0
2404,1223424.412222131
2428,1772743.9450100102
2440,0.0
2,1, 1, 1, 0,11, 0.00,60.00,Tuesday
168,32886.0
183,1314153.1734671049
196,1380753.0564509056
276,0.0
2128,0.0
2140,0.0
2164,3917952.5748871446
2176,3547013.8971379937
2188,0.0
2200,0.0
2212,0.0
2224,0.0
2236,0.0
2248,0.0
2260,0.0
2272,0.0
2284,0.0
2296,0.0
2308,0.0
2320,0.0
2332,2447384.9877052747
2344,0.0
2356,319819.73993108168
2368,0.0
2380,0.0
2392,0.0
2404,1190160.3449691339
2428,3547013.8971379937
2440,0.0
2,1, 1, 1, 0,12, 0.00,60.00,Tuesday
168,32886.0
183,1344714.875175642
196,1956825.053478795
276,0.0
2128,0.0
2140,0.0
2164,4478499.81037754
2176,5609125.810439773
2188,0.0
2200,0.0
2212,0.0
2224,0.0
2236,0.0
2248,0.0
2260,0.0
2272,0.0
2284,0.0
2296,0.0
2308,0.0
2320,0.0
2332,4292935.830357929
2344,0.0
2356,254223.78997978485
2368,0.0
2380,0.0
2392,0.0
2404,1144073.8817231039
2428,5609125.810439773
2440,0.0
2,1, 1, 1, 0,13, 0.00,60.00,Tuesday
168,32886.0
183,1375276.5768841792
196,2136880.786052198
276,0.0
2128,0.0
2140,0.0
2164,4655853.177406483
2176,8014516.424050432
2188,0.0
2200,0.0
2212,0.0
2224,0.0
2236,0.0
2248,0.0
2260,0.0
2272,0.0
2284,0.0
2296,0.0
2308,0.0
2320,0.0
2332,4599054.278985088
2344,0.0
2356,221425.81500413645
2368,0.0
2380,0.0
2392,0.0
2404,1110809.8144701066
2428,8014516.424050432
2440,0.0
2,1, 1, 1, 0,14, 0.00,60.00,Tuesday
168,32886.0
183,1375276.5768841792
196,1289556.6705075589
276,0.0
2128,0.0
2140,0.0
2164,3798740.6221982014
2176,61874.63389721839
2188,0.0
2200,0.0
2212,0.0
2224,0.0
2236,0.0
2248,0.0
2260,0.0
2272,0.0
2284,0.0
2296,0.0
2308,0.0
2320,0.0
2332,320736.1100652042
2344,0.0
2356,196787.8498538904
2368,0.0
2380,0.0
2392,0.0
2404,1101021.3748064636
2428,61874.63389721839
2440,0.0
2,1, 1, 1, 0,15, 0.00,60.00,Tuesday
168,32886.0
183,1344714.875175642
196,1243273.3397797018
276,0.0
2128,0.0
2140,0.0
2164,3724060.822028278
2176,0.0
2188,0.0
2200,0.0
2212,0.0
2224,0.0
2236,0.0
2248,0.0
2260,0.0
2272,0.0
2284,0.0
2296,0.0
2308,0.0
2320,0.0
2332,0.0
2344,0.0
2356,196787.8498538904
2368,0.0
2380,0.0
2392,0.0
2404,1103186.6070729348
2428,0.0
2440,0.0
2,1, 1, 1, 0,16, 0.00,60.00,Tuesday
168,32886.0
183,1405838.278592717
196,1202247.236650511
276,0.0
2128,0.0
2140,0.0
2164,3769998.5465945166
2176,6007931.311412562
2188,0.0
2200,0.0
2212,0.0
2224,0.0
2236,0.0
2248,0.0
2260,0.0
2272,0.0
2284,0.0
2296,0.0
2308,0.0
2320,0.0
2332,3201406.4109599317
2344,0.0
2356,172202.52992832385
2368,0.0
2380,0.0
2392,0.0
2404,1129027.0313512877
2428,6007931.311412562
2440,0.0
2,1, 1, 1, 0,17, 0.00,60.00,Tuesday
168,32886.0
183,1655961.6820097913
196,1451359.2618874673
276,0.0
2128,0.0
2140,0.0
2164,4376077.573579139
2176,6354851.271591434
2188,0.0
2200,0.0
2212,0.0
2224,0.0
2236,0.0
2248,0.0
2260,0.0
2272,0.0
2284,0.0
2296,0.0
2308,0.0
2320,0.0
2332,4465132.417544239
2344,0.0
2356,229585.82482953883
2368,0.0
2380,0.0
2392,0.0
2404,1235870.6296818802
2428,6354851.271591434
2440,0.0
2,1, 1, 1, 0,18, 0.00,60.00,Tuesday
168,122886.0
183,1589208.4872124897
196,1826615.1859950594
276,0.0
2128,0.0
2140,0.0
2164,5070499.351557935
2176,0.0
2188,0.0
2200,0.0
2212,0.0
2224,0.0
2236,0.0
2248,0.0
2260,0.0
2272,0.0
2284,0.0
2296,0.0
2308,0.0
2320,0.0
2332,0.0
2344,0.0
2356,303394.42983091747
2368,0.0
2380,0.0
2392,0.0
2404,1531789.6783503849
2428,0.0
2440,0.0
2,1, 1, 1, 0,19, 0.00,60.00,Tuesday
168,50886.0
183,1619770.1889210267
196,1594814.8985418627
276,0.0
2128,0.0
2140,0.0
2164,5296686.400526046
2176,0.0
2188,0.0
2200,0.0
2212,0.0
2224,0.0
2236,0.0
2248,0.0
2260,0.0
2272,0.0
2284,0.0
2296,0.0
2308,0.0
2320,0.0
2332,0.0
2344,0.0
2356,360830.3699568123
2368,0.0
2380,0.0
2392,0.0
2404,2031215.3130631569
2428,0.0
2440,0.0
2,1, 1, 1, 0,20, 0.00,60.00,Tuesday
168,32886.0
183,1528085.0837954148
196,1225037.5691739976
276,0.0
2128,0.0
2140,0.0
2164,5249181.269343852
2176,1554707.7156986353
2188,0.0
2200,0.0
2212,0.0
2224,0.0
2236,0.0
2248,0.0
2260,0.0
2272,0.0
2284,0.0
2296,0.0
2308,0.0
2320,0.0
2332,0.0
2344,0.0
2356,344405.05985664817
2368,0.0
2380,0.0
2392,0.0
2404,2463172.6163744407
2428,1554707.7156986353
2440,0.0
2,1, 1, 1, 0,21, 0.00,60.00,Tuesday
168,32886.0
183,1436399.980301254
196,1073752.4362870979
276,0.0
2128,0.0
2140,0.0
2164,4997738.168156641
2176,0.0
2188,0.0
2200,0.0
2212,0.0
2224,0.0
2236,0.0
2248,0.0
2260,0.0
2272,0.0
2284,0.0
2296,0.0
2308,0.0
2320,0.0
2332,0.0
2344,0.0
2356,311607.0848809997
2368,0.0
2380,0.0
2392,0.0
2404,2454699.7515682887
2428,0.0
2440,0.0
2,1, 1, 1, 0,22, 0.00,60.00,Tuesday
168,32886.0
183,1375276.5768841792
196,1028508.8320078589
276,0.0
2128,0.0
2140,0.0
2164,4450627.864530386
2176,4333234.327815371
2188,0.0
2200,0.0
2212,0.0
2224,0.0
2236,0.0
2248,0.0
2260,0.0
2272,0.0
2284,0.0
2296,0.0
2308,0.0
2320,0.0
2332,2886163.0017732216
2344,0.0
2356,254223.78997978485
2368,0.0
2380,0.0
2392,0.0
2404,2013956.4556383477
2428,4333234.327815371
2440,0.0
2,1, 1, 1, 0,23, 0.00,60.00,Tuesday
168,32886.0
183,1222468.0683414927
196,845509.5529550103
276,0.0
2128,0.0
2140,0.0
2164,3321681.982620469
2176,827941.0742659249
2188,0.0
2200,0.0
2212,0.0
2224,0.0
2236,0.0
2248,0.0
2260,0.0
2272,0.0
2284,0.0
2296,0.0
2308,0.0
2320,0.0
2332,0.0
2344,0.0
2356,221425.81500413645
2368,0.0
2380,0.0
2392,0.0
2404,1220818.3613239655
2428,827941.0742659249
2440,0.0
2,1, 1, 1, 0,24, 0.00,60.00,Tuesday
168,32886.0
183,1100221.2615073436
196,566765.837745014
276,0.0
2128,0.0
2140,0.0
2164,2322023.9968760956
2176,0.0
2188,0.0
2200,0.0
2212,0.0
2224,0.0
2236,0.0
2248,0.0
2260,0.0
2272,0.0
2284,0.0
2296,0.0
2308,0.0
2320,0.0
2332,0.0
2344,0.0
2356,122979.2448525113
2368,0.0
2380,0.0
2392,0.0
2404,622150.8976237377
2428,0.0
2440,0.0
2,2, 1, 2, 0, 1, 0.00,60.00,Wednesday
168,32886.0
183,1069659.5597988063
196,374401.0118661388
276,0.0
2128,0.0
2140,0.0
2164,1831141.142928775
2176,3712328.301630527
2188,45270.09826144435
2200,0.0
2212,2156561.7723790609
2224,0.0
2236,0.0
2248,1361.5946001322555
2260,0.0
2272,0.0
2284,-1361.5946001322555
2296,0.0
2308,0.0
2320,1767322.9123717896
2332,0.0
2344,173582.68276936486
2356,32797.9749756484
2368,0.0
2380,0.0
2392,0.0
2404,308924.47300238566
2428,1555766.5292514663
2440,0.0
2,2, 1, 2, 0, 2, 0.00,60.00,Wednesday
168,32886.0
183,1008536.1563817315
196,322803.86038115128
276,0.0
2128,0.0
2140,0.0
2164,1660245.2112538773
2176,4340150.501754249
2188,110664.5106895624
2200,0.0
2212,4340150.501754249
2224,0.0
2236,0.0
2248,905.4377077945535
2260,0.0
2272,0.0
2284,-905.4377077945535
2296,0.0
2308,0.0
2320,3477417.9578875086
2332,103148.51729101055
2344,428717.493691316
2356,16425.310100164195
2368,0.0
2380,0.0
2392,0.0
2404,185354.6838014321
2428,0.0
2440,0.0
2,2, 1, 2, 0, 3, 0.00,60.00,Wednesday
168,32886.0
183,977974.4546731942
196,275424.2100462132
276,0.0
2128,0.0
2140,0.0
2164,1576704.3583114674
2176,8163770.728044851
2188,166849.90439110518
2200,0.0
2212,6422024.188657507
2224,0.0
2236,0.0
2248,34.56046699618392
2260,0.0
2272,0.0
2284,-34.56046699618392
2296,0.0
2308,0.0
2320,5120863.988161104
2332,933377.2270750785
2344,658957.7816306519
2356,4106.32752504106
2368,0.0
2380,0.0
2392,0.0
2404,123569.78920095472
2428,1741746.539387343
2440,0.0
2,2, 1, 2, 0, 4, 0.00,60.00,Wednesday
168,32886.0
183,947412.7529646568
196,246941.4284444812
276,0.0
2128,0.0
2140,0.0
2164,1581801.7004047624
2176,10303125.647233297
2188,230991.72979466967
2200,0.0
2212,8747579.1866647
2224,0.0
2236,0.0
2248,0.0
2260,0.0
2272,0.0
2284,0.0
2296,0.0
2308,0.0
2320,6931515.861899134
2332,0.0
2344,941305.4060990966
2356,4106.32752504106
2368,0.0
2380,0.0
2392,0.0
2404,123569.78920095472
2428,1555546.4605685953
2440,0.0
2,2, 1, 2, 0, 5, 0.00,60.00,Wednesday
168,32886.0
183,977974.4546731942
196,283584.255342467
276,0.0
2128,0.0
2140,0.0
2164,1714253.066811034
2176,10482384.651105453
2188,282426.5586128107
2200,0.0
2212,10482384.651105453
2224,0.0
2236,0.0
2248,0.0
2260,0.0
2272,0.0
2284,0.0
2296,0.0
2308,0.0
2320,8246718.524945509
2332,0.0
2344,1187427.6610493973
2356,16425.310100164195
2368,0.0
2380,0.0
2392,0.0
2404,137381.7981825619
2428,0.0
2440,0.0
2,2, 1, 2, 0, 6, 0.00,60.00,Wednesday
168,32886.0
183,1008536.1563817315
196,331894.4502033306
276,0.0
2128,0.0
2140,0.0
2164,2058547.2305163956
2176,11257642.321405992
2188,308271.0866735461
2200,0.0
2212,11257642.321405992
2224,0.0
2236,0.0
2248,0.0
2260,0.0
2272,0.0
2284,0.0
2296,0.0
2308,0.0
2320,8809243.176949989
2332,3208.595889420704
2344,1322634.9123154055
2356,114819.23502710936
2368,0.0
2380,0.0
2392,0.0
2404,376959.53725778716
2428,0.0
2440,0.0
2,2, 1, 2, 0, 7, 0.00,60.00,Wednesday
168,122886.0
183,1130782.9632158809
196,546388.5104781898
276,0.0
2128,0.0
2140,0.0
2164,3059063.067459349
2176,15439062.531723114
2188,374008.65880831438
2200,0.0
2212,13792348.587408152
2224,0.0
2236,0.0
2248,0.0
2260,0.0
2272,0.0
2284,0.0
2296,0.0
2308,0.0
2320,10797417.84545918
2332,711494.0760884795
2344,1615695.883208158
2356,393628.34493246077
2368,0.0
2380,0.0
2392,0.0
2404,884996.9349569638
2428,1646713.9443149623
2440,0.0
2,2, 1, 2, 0, 8, 0.00,60.00,Wednesday
168,50886.0
183,1283591.4717585676
196,849122.5491360219
276,0.0
2128,0.0
2140,0.0
2164,3537840.427548821
2176,8472017.025003417
2188,234299.5997170781
2200,0.0
2212,6916212.385443834
2224,0.0
2236,0.0
2248,0.0
2260,0.0
2272,0.0
2284,0.0
2296,0.0
2308,0.0
2320,5285930.772144971
2332,318612.9686999478
2344,941123.5819021881
2356,418213.6648580268
2368,0.0
2380,0.0
2392,0.0
2404,1119940.8069371533
2428,1555804.6395595836
2440,0.0
2,2, 1, 2, 0, 9, 0.00,60.00,Wednesday
168,32886.0
183,1314153.1734671049
196,1064601.7448981524
276,0.0
2128,0.0
2140,0.0
2164,3751704.444247111
2176,7530048.587763033
2188,149880.99521846127
2200,0.0
2212,5922326.142814365
2224,0.0
2236,0.0
2248,0.0
2260,0.0
2272,0.0
2284,0.0
2296,0.0
2308,0.0
2320,4670053.3919356879
2332,1310210.8316200462
2344,659526.3743490233
2356,401788.3547578626
2368,0.0
2380,0.0
2392,0.0
2404,1190182.5306633923
2428,1607722.4449486682
2440,0.0
2,2, 1, 2, 0,10, 0.00,60.00,Wednesday
168,32886.0
183,1314153.1734671049
196,1308343.3562195148
276,0.0
2128,0.0
2140,0.0
2164,4033419.237602011
2176,6617189.615890607
2188,154612.29569326019
2200,0.0
2212,5017318.092749804
2224,0.0
2236,0.0
2248,0.0
2260,0.0
2272,0.0
2284,0.0
2296,0.0
2308,0.0
2320,3960220.584373977
2332,302568.4814540241
2344,553787.3241042476
2356,352617.71490672996
2368,0.0
2380,0.0
2392,0.0
2404,1223424.412222131
2428,1599871.5231408028
2440,0.0
2,2, 1, 2, 0,11, 0.00,60.00,Wednesday
168,32886.0
183,1314153.1734671049
196,1380753.0564509056
276,0.0
2128,0.0
2140,0.0
2164,4085065.944213602
2176,7799859.431212205
2188,167113.36932645855
2200,0.0
2212,6163241.904852331
2224,0.0
2236,0.0
2248,0.0
2260,0.0
2272,0.0
2284,0.0
2296,0.0
2308,0.0
2320,4957419.018883233
2332,429096.9272513117
2344,591867.1179523253
2356,319819.73993108168
2368,0.0
2380,0.0
2392,0.0
2404,1190160.3449691339
2428,1636617.5263598753
2440,0.0
2,2, 1, 2, 0,12, 0.00,60.00,Wednesday
168,32886.0
183,1344714.875175642
196,1552447.89967104
276,0.0
2128,0.0
2140,0.0
2164,4132654.5405505576
2176,3382884.517682791
2188,58531.883980772654
2200,0.0
2212,1772401.6889845082
2224,0.0
2236,0.0
2248,0.0
2260,0.0
2272,0.0
2284,0.0
2296,0.0
2308,0.0
2320,1361792.9742123406
2332,1125211.779780738
2344,231460.78935555937
2356,254223.78997978485
2368,0.0
2380,0.0
2392,0.0
2404,1144073.8817231039
2428,1610482.828698283
2440,0.0
2,2, 1, 2, 0,13, 0.00,60.00,Wednesday
168,32886.0
183,1375276.5768841792
196,1439745.4837873749
276,0.0
2128,0.0
2140,0.0
2164,3976070.36816204
2176,2124020.135821185
2188,17352.493020379723
2200,0.0
2212,568267.3721839675
2224,0.0
2236,0.0
2248,0.0
2260,0.0
2272,0.0
2284,0.0
2296,0.0
2308,0.0
2320,448380.10516841497
2332,305320.2143009192
2344,63060.52979715593
2356,221425.81500413645
2368,0.0
2380,0.0
2392,0.0
2404,1110809.8144701066
2428,1555752.7636372178
2440,0.0
2,2, 1, 2, 0,14, 0.00,60.00,Wednesday
168,32886.0
183,1375276.5768841792
196,1289556.6705075589
276,0.0
2128,0.0
2140,0.0
2164,3799410.868215927
2176,0.0
2188,670.246017725715
2200,0.0
2212,0.0
2224,0.0
2236,0.0
2248,0.0
2260,0.0
2272,0.0
2284,0.0
2296,0.0
2308,0.0
2320,-2077.772659825315
2332,313112.5186037982
2344,2077.772659825315
2356,196787.8498538904
2368,0.0
2380,0.0
2392,0.0
2404,1101021.3748064636
2428,0.0
2440,0.0
2,2, 1, 2, 0,15, 0.00,60.00,Wednesday
168,32886.0
183,1344714.875175642
196,1446774.7216129299
276,0.0
2128,0.0
2140,0.0
2164,3927562.203861506
2176,3394498.788714767
2188,0.0
2200,0.0
2212,0.0
2224,0.0
2236,0.0
2248,0.0
2260,0.0
2272,0.0
2284,0.0
2296,0.0
2308,0.0
2320,0.0
2332,1346596.4137456422
2344,0.0
2356,196787.8498538904
2368,0.0
2380,0.0
2392,0.0
2404,1103186.6070729348
2428,3394498.788714767
2440,0.0
2,2, 1, 2, 0,16, 0.00,60.00,Wednesday
168,32886.0
183,1405838.278592717
196,1202247.236650511
276,0.0
2128,0.0
2140,0.0
2164,3769998.5465945166
2176,0.0
2188,0.0
2200,0.0
2212,0.0
2224,0.0
2236,0.0
2248,0.0
2260,0.0
2272,0.0
2284,0.0
2296,0.0
2308,0.0
2320,0.0
2332,281480.4071544762
2344,0.0
2356,172202.52992832385
2368,0.0
2380,0.0
2392,0.0
2404,1129027.0313512877
2428,0.0
2440,0.0
2,2, 1, 2, 0,17, 0.00,60.00,Wednesday
168,32886.0
183,1466961.6820097913
196,1451359.2618874673
276,0.0
2128,0.0
2140,0.0
2164,4187077.573579139
2176,1555030.9200657188
2188,0.0
2200,0.0
2212,0.0
2224,0.0
2236,0.0
2248,0.0
2260,0.0
2272,0.0
2284,0.0
2296,0.0
2308,0.0
2320,0.0
2332,5501.957894969996
2344,0.0
2356,229585.82482953883
2368,0.0
2380,0.0
2392,0.0
2404,1235870.6296818802
2428,1555030.9200657188
2440,0.0
2,2, 1, 2, 0,18, 0.00,60.00,Wednesday
168,122886.0
183,1589208.4872124897
196,1826615.1859950594
276,0.0
2128,0.0
2140,0.0
2164,5083872.39461482
2176,612096.677727514
2188,13373.04305688633
2200,0.0
2212,612096.677727514
2224,0.0
2236,0.0
2248,0.0
2260,0.0
2272,0.0
2284,0.0
2296,0.0
2308,0.0
2320,521344.2397217677
2332,55470.41079694469
2344,21281.54428686395
2356,303394.42983091747
2368,0.0
2380,0.0
2392,0.0
2404,1531789.6783503849
2428,0.0
2440,0.0
2,2, 1, 2, 0,19, 0.00,60.00,Wednesday
168,50886.0
183,1619770.1889210267
196,1594814.8985418627
276,0.0
2128,0.0
2140,0.0
2164,5343326.466468855
2176,1446547.8245837717
2188,46640.06594280887
2200,0.0
2212,1446547.8245837717
2224,0.0
2236,0.0
2248,0.0
2260,0.0
2272,0.0
2284,0.0
2296,0.0
2308,0.0
2320,1161936.8597833813
2332,0.0
2344,139911.6256754172
2356,360830.3699568123
2368,0.0
2380,0.0
2392,0.0
2404,2031215.3130631569
2428,0.0
2440,0.0
2,2, 1, 2, 0,20, 0.00,60.00,Wednesday
168,32886.0
183,1528085.0837954148
196,1225037.5691739976
276,0.0
2128,0.0
2140,0.0
2164,5340100.268539341
2176,5410605.982349635
2188,90918.99919548813
2200,0.0
2212,3854797.778046692
2224,0.0
2236,0.0
2248,0.0
2260,0.0
2272,0.0
2284,0.0
2296,0.0
2308,0.0
2320,3089845.9664306819
2332,0.0
2344,381878.99365296578
2356,344405.05985664817
2368,0.0
2380,0.0
2392,0.0
2404,2463172.6163744407
2428,1555808.2043029438
2440,0.0
2,2, 1, 2, 0,21, 0.00,60.00,Wednesday
168,32886.0
183,1436399.980301254
196,1073752.4362870979
276,0.0
2128,0.0
2140,0.0
2164,5143901.947969496
2176,7654803.192706607
2188,146163.77981285595
2200,0.0
2212,5526119.886936612
2224,0.0
2236,0.0
2248,0.0
2260,0.0
2272,0.0
2284,0.0
2296,0.0
2308,0.0
2320,4374792.678627858
2332,1730600.220684607
2344,598715.2196150931
2356,311607.0848809997
2368,0.0
2380,0.0
2392,0.0
2404,2454699.7515682887
2428,2128683.3057699955
2440,0.0
2,2, 1, 2, 0,22, 0.00,60.00,Wednesday
168,32886.0
183,1375276.5768841792
196,1028508.8320078589
276,0.0
2128,0.0
2140,0.0
2164,4631667.666389762
2176,9818462.858145215
2188,181039.80185937574
2200,0.0
2212,6803121.442338201
2224,0.0
2236,0.0
2248,0.0
2260,0.0
2272,0.0
2284,0.0
2296,0.0
2308,0.0
2320,5362298.7138716499
2332,1590317.6340493048
2344,760510.5842327308
2356,254223.78997978485
2368,0.0
2380,0.0
2392,0.0
2404,2013956.4556383477
2428,3015341.415807014
2440,0.0
2,2, 1, 2, 0,23, 0.00,60.00,Wednesday
168,32886.0
183,1222468.0683414927
196,845509.5529550103
276,0.0
2128,0.0
2140,0.0
2164,3538065.73130948
2176,9829865.294716269
2188,216383.74868901133
2200,0.0
2212,8090715.71218091
2224,0.0
2236,0.0
2248,0.0
2260,0.0
2272,0.0
2284,0.0
2296,0.0
2308,0.0
2320,6360991.393332462
2332,1190102.5931992403
2344,920652.7476303564
2356,221425.81500413645
2368,0.0
2380,0.0
2392,0.0
2404,1220818.3613239655
2428,1739149.5825353596
2440,0.0
2,2, 1, 2, 0,24, 0.00,60.00,Wednesday
168,32886.0
183,1100221.2615073436
196,566765.837745014
276,0.0
2128,0.0
2140,0.0
2164,2544121.5824103259
2176,19943086.22942416
2188,222097.5855342307
2200,0.0
2212,8199720.002394915
2224,0.0
2236,0.0
2248,0.0
2260,0.0
2272,0.0
2284,0.0
2296,0.0
2308,0.0
2320,6428103.042243464
2332,7697423.286957366
2344,951644.9599119596
2356,122979.2448525113
2368,0.0
2380,0.0
2392,0.0
2404,622150.8976237377
2428,11743366.227029244
2440,0.0
2,3, 1, 3, 0, 1, 0.00,60.00,Thursday
168,32886.0
183,1069659.5597988063
196,374401.0118661388
276,0.0
2128,0.0
2140,0.0
2164,2072512.579060265
2176,11774321.268533627
2188,286641.5343929346
2200,0.0
2212,10741179.420113197
2224,0.0
2236,0.0
2248,0.0
2260,0.0
2272,0.0
2284,0.0
2296,0.0
2308,0.0
2320,8430728.177017438
2332,709621.4213646546
2344,1236333.301084441
2356,32797.9749756484
2368,0.0
2380,0.0
2392,0.0
2404,308924.47300238566
2428,1033141.8484204293
2440,0.0
2,3, 1, 3, 0, 2, 0.00,60.00,Thursday
168,32886.0
183,1008536.1563817315
196,322803.86038115128
276,0.0
2128,0.0
2140,0.0
2164,1868957.5957744555
2176,12398765.380107934
2188,319376.8952101406
2200,0.0
2212,11792880.75999333
2224,0.0
2236,0.0
2248,0.0
2260,0.0
2272,0.0
2284,0.0
2296,0.0
2308,0.0
2320,9226811.148243525
2332,0.0
2344,1386781.5357504723
2356,16425.310100164195
2368,0.0
2380,0.0
2392,0.0
2404,185354.6838014321
2428,605884.6201146047
2440,0.0
2,3, 1, 3, 0, 3, 0.00,60.00,Thursday
168,32886.0
183,977974.4546731942
196,275424.2100462132
276,0.0
2128,0.0
2140,0.0
2164,1754045.673518362
2176,12751284.292694303
2188,344191.2195979997
2200,0.0
2212,12751284.292694303
2224,0.0
2236,0.0
2248,0.0
2260,0.0
2272,0.0
2284,0.0
2296,0.0
2308,0.0
2320,9972505.888653888
2332,0.0
2344,1503649.974770985
2356,4106.32752504106
2368,0.0
2380,0.0
2392,0.0
2404,123569.78920095472
2428,0.0
2440,0.0
2,3, 1, 3, 0, 4, 0.00,60.00,Thursday
168,32886.0
183,947412.7529646568
196,246941.4284444812
276,0.0
2128,0.0
2140,0.0
2164,1718410.4943980096
2176,15033055.824466123
2188,367600.52378791678
2200,0.0
2212,13477270.878963327
2224,0.0
2236,0.0
2248,0.0
2260,0.0
2272,0.0
2284,0.0
2296,0.0
2308,0.0
2320,10510531.243514123
2332,0.0
2344,1619012.5475528709
2356,4106.32752504106
2368,0.0
2380,0.0
2392,0.0
2404,123569.78920095472
2428,1555784.9455027958
2440,0.0
2,3, 1, 3, 0, 5, 0.00,60.00,Thursday
168,32886.0
183,977974.4546731942
196,283584.255342467
276,0.0
2128,0.0
2140,0.0
2164,1813041.859176645
2176,15860130.762893733
2188,381215.35097842177
2200,0.0
2212,14086292.134007607
2224,0.0
2236,0.0
2248,0.0
2260,0.0
2272,0.0
2284,0.0
2296,0.0
2308,0.0
2320,10987435.808774727
2332,1069254.1037786252
2344,1690227.111832121
2356,16425.310100164195
2368,0.0
2380,0.0
2392,0.0
2404,137381.7981825619
2428,1773838.628886126
2440,0.0
2,3, 1, 3, 0, 6, 0.00,60.00,Thursday
168,32886.0
183,1008536.1563817315
196,331894.4502033306
276,0.0
2128,0.0
2140,0.0
2164,2147556.787054771
2176,16130685.904397827
2188,397280.6432119218
2200,0.0
2212,14498874.087345832
2224,0.0
2236,0.0
2248,0.0
2260,0.0
2272,0.0
2284,0.0
2296,0.0
2308,0.0
2320,11272442.71554966
2332,611331.4493347763
2344,1776543.9630615889
2356,114819.23502710936
2368,0.0
2380,0.0
2392,0.0
2404,376959.53725778716
2428,1631811.8170519968
2440,0.0
2,3, 1, 3, 0, 7, 0.00,60.00,Thursday
168,122886.0
183,1130782.9632158809
196,546388.5104781898
276,0.0
2128,0.0
2140,0.0
2164,3156563.5500555976
2176,17490756.579537788
2188,471509.1414045631
2200,0.0
2212,17490756.579537788
2224,0.0
2236,0.0
2248,0.0
2260,0.0
2272,0.0
2284,0.0
2296,0.0
2308,0.0
2320,13630510.370014482
2332,0.0
2344,2111170.551569524
2356,393628.34493246077
2368,0.0
2380,0.0
2392,0.0
2404,884996.9349569638
2428,0.0
2440,0.0
2,3, 1, 3, 0, 8, 0.00,60.00,Thursday
168,50886.0
183,1283591.4717585676
196,849122.5491360219
276,0.0
2128,0.0
2140,0.0
2164,3593594.709197114
2176,9921018.566996757
2188,290053.8813653713
2200,0.0
2212,8253547.83027111
2224,0.0
2236,0.0
2248,0.0
2260,0.0
2272,0.0
2284,0.0
2296,0.0
2308,0.0
2320,6267358.16327406
2332,1216230.5817418153
2344,1161066.0790005453
2356,418213.6648580268
2368,0.0
2380,0.0
2392,0.0
2404,1119940.8069371533
2428,1667470.7367256485
2440,0.0
2,3, 1, 3, 0, 9, 0.00,60.00,Thursday
168,32886.0
183,1314153.1734671049
196,1064601.7448981524
276,0.0
2128,0.0
2140,0.0
2164,3760544.0782633826
2176,7352391.056344668
2188,158720.62923473196
2200,0.0
2212,5796872.42456392
2224,0.0
2236,0.0
2248,0.0
2260,0.0
2272,0.0
2284,0.0
2296,0.0
2308,0.0
2320,4566662.7909382139
2332,39500.28723026599
2344,647659.0159056222
2356,401788.3547578626
2368,0.0
2380,0.0
2392,0.0
2404,1190182.5306633923
2428,1555518.631780749
2440,0.0
2,3, 1, 3, 0,10, 0.00,60.00,Thursday
168,32886.0
183,1314153.1734671049
196,1308343.3562195148
276,0.0
2128,0.0
2140,0.0
2164,3980594.5307177605
2176,5247575.747766188
2188,101787.58880900976
2200,0.0
2212,3601764.1524152189
2224,0.0
2236,0.0
2248,0.0
2260,0.0
2272,0.0
2284,0.0
2296,0.0
2308,0.0
2320,2867768.4172548728
2332,864864.1365820905
2344,377253.292454557
2356,352617.71490672996
2368,0.0
2380,0.0
2392,0.0
2404,1223424.412222131
2428,1645811.5953509692
2440,0.0
2,3, 1, 3, 0,11, 0.00,60.00,Thursday
168,32886.0
183,1314153.1734671049
196,1380753.0564509056
276,0.0
2128,0.0
2140,0.0
2164,4029996.184573615
2176,4210227.755503597
2188,112043.60968647112
2200,0.0
2212,4210227.755503597
2224,0.0
2236,0.0
2248,0.0
2260,0.0
2272,0.0
2284,0.0
2296,0.0
2308,0.0
2320,3438997.2270177865
2332,25720.203854310417
2344,349929.1940967552
2356,319819.73993108168
2368,0.0
2380,0.0
2392,0.0
2404,1190160.3449691339
2428,0.0
2440,0.0
2,3, 1, 3, 0,12, 0.00,60.00,Thursday
168,32886.0
183,1344714.875175642
196,1465816.2612310048
276,0.0
2128,0.0
2140,0.0
2164,3994600.780851466
2176,17265149.401462869
2188,7109.762721716459
2200,0.0
2212,0.0
2224,0.0
2236,0.0
2248,0.0
2260,0.0
2272,0.0
2284,0.0
2296,0.0
2308,0.0
2320,-41396.01866148886
2332,12044020.629165084
2344,41396.01866148886
2356,254223.78997978485
2368,0.0
2380,0.0
2392,0.0
2404,1144073.8817231039
2428,17265149.401462869
2440,0.0
2,3, 1, 3, 0,13, 0.00,60.00,Thursday
168,32886.0
183,1375276.5768841792
196,1439745.4837873749
276,0.0
2128,0.0
2140,0.0
2164,3958717.87514166
2176,0.0
2188,0.0
2200,0.0
2212,0.0
2224,0.0
2236,0.0
2248,0.0
2260,0.0
2272,0.0
2284,0.0
2296,0.0
2308,0.0
2320,0.0
2332,0.0
2344,0.0
2356,221425.81500413645
2368,0.0
2380,0.0
2392,0.0
2404,1110809.8144701066
2428,0.0
2440,0.0
2,3, 1, 3, 0,14, 0.00,60.00,Thursday
168,32886.0
183,1375276.5768841792
196,1289556.6705075589
276,0.0
2128,0.0
2140,0.0
2164,3798740.6221982014
2176,0.0
2188,0.0
2200,0.0
2212,0.0
2224,0.0
2236,0.0
2248,0.0
2260,0.0
2272,0.0
2284,0.0
2296,0.0
2308,0.0
2320,0.0
2332,0.0
2344,0.0
2356,196787.8498538904
2368,0.0
2380,0.0
2392,0.0
2404,1101021.3748064636
2428,0.0
2440,0.0
2,3, 1, 3, 0,15, 0.00,60.00,Thursday
168,32886.0
183,1344714.875175642
196,1243273.3397797018
276,0.0
2128,0.0
2140,0.0
2164,3724060.822028278
2176,1555338.979200328
2188,0.0
2200,0.0
2212,0.0
2224,0.0
2236,0.0
2248,0.0
2260,0.0
2272,0.0
2284,0.0
2296,0.0
2308,0.0
2320,0.0
2332,525440.8331862665
2344,0.0
2356,196787.8498538904
2368,0.0
2380,0.0
2392,0.0
2404,1103186.6070729348
2428,1555338.979200328
2440,0.0
2,3, 1, 3, 0,16, 0.00,60.00,Thursday
168,32886.0
183,1405838.278592717
196,1202247.236650511
276,0.0
2128,0.0
2140,0.0
2164,3769998.5465945166